# vtk DataFile Version 3.0
TPZGeoMesh VTK Visualization
ASCII

DATASET UNSTRUCTURED_GRID
POINTS 32 float
0 0 0 
0.05 0 0 
0.05 0 0 
0.1 0 0 
0.1 0 0 
0.1 0.15 0 
0.1 0.15 0 
0.1 0.3 0 
0.1 0.3 0 
0.05 0.3 0 
0.05 0.3 0 
0 0.3 0 
0 0.3 0 
0 0.15 0 
0 0.15 0 
0 0 0 
0 0 0 
0.05 0 0 
0.05 0.15 0 
0 0.15 0 
0 0.15 0 
0.05 0.15 0 
0.05 0.3 0 
0 0.3 0 
0.05 0 0 
0.1 0 0 
0.1 0.15 0 
0.05 0.15 0 
0.05 0.15 0 
0.1 0.15 0 
0.1 0.3 0 
0.05 0.3 0 

CELLS 12 44
2 0 1
2 2 3
2 4 5
2 6 7
2 8 9
2 10 11
2 12 13
2 14 15
4 16 17 18 19
4 20 21 22 23
4 24 25 26 27
4 28 29 30 31

CELL_TYPES 12
3
3
3
3
3
3
3
3
9
9
9
9

CELL_DATA 12
FIELD FieldData 1
material 1 12 int
1
1
2
2
3
3
4
4
5
5
5
5
FIELD FieldData 1
elindex 1 12 int
0
1
2
3
4
5
6
7
8
9
10
11
