# vtk DataFile Version 3.0
GeoMesh VTK Visualization
ASCII

DATASET UNSTRUCTURED_GRID
POINTS 56 float
0 0 0 
0.05 0 0 
0.025 0 0 
0.05 0 0 
0.1 0 0 
0.075 0 0 
0.1 0 0 
0.1 0.15 0 
0.1 0.075 0 
0.1 0.15 0 
0.1 0.3 0 
0.1 0.225 0 
0.1 0.3 0 
0.05 0.3 0 
0.075 0.3 0 
0.05 0.3 0 
0 0.3 0 
0.025 0.3 0 
0 0.3 0 
0 0.15 0 
0 0.225 0 
0 0.15 0 
0 0 0 
0 0.075 0 
0 0 0 
0.05 0 0 
0.05 0.15 0 
0 0.15 0 
0.025 0 0 
0.05 0.075 0 
0.025 0.15 0 
0 0.075 0 
0 0.15 0 
0.05 0.15 0 
0.05 0.3 0 
0 0.3 0 
0.025 0.15 0 
0.05 0.225 0 
0.025 0.3 0 
0 0.225 0 
0.05 0 0 
0.1 0 0 
0.1 0.15 0 
0.05 0.15 0 
0.075 0 0 
0.1 0.075 0 
0.075 0.15 0 
0.05 0.075 0 
0.05 0.15 0 
0.1 0.15 0 
0.1 0.3 0 
0.05 0.3 0 
0.075 0.15 0 
0.1 0.225 0 
0.075 0.3 0 
0.05 0.225 0 

CELLS 12 68
3 0 1 2
3 3 4 5
3 6 7 8
3 9 10 11
3 12 13 14
3 15 16 17
3 18 19 20
3 21 22 23
8 24 25 26 27 28 29 30 31
8 32 33 34 35 36 37 38 39
8 40 41 42 43 44 45 46 47
8 48 49 50 51 52 53 54 55

CELL_TYPES 12
21
21
21
21
21
21
21
21
23
23
23
23

CELL_DATA 12
FIELD FieldData 1
material 1 12 int
1
1
2
2
3
3
4
4
5
5
5
5
FIELD FieldData 1
elindex 1 12 int
0
1
2
3
4
5
6
7
8
9
10
11
